# vtk DataFile Version 2.0
File written by itkVTKPolyDataWriter
ASCII
DATASET POLYDATA
POINTS 258 float
100 0 0
-100 0 0
0 100 0
0 -100 0
0 0 100
0 0 -100
0 70.7107 70.7107
70.7107 0 70.7107
70.7107 70.7107 0
-70.7107 70.7107 0
-70.7107 0 70.7107
-70.7107 -70.7107 0
0 -70.7107 70.7107
70.7107 -70.7107 0
0 70.7107 -70.7107
70.7107 0 -70.7107
-70.7107 0 -70.7107
0 -70.7107 -70.7107
0 92.388 38.2683
40.8248 81.6497 40.8248
38.2683 92.388 0
0 38.2683 92.388
38.2683 0 92.388
40.8248 40.8248 81.6497
92.388 0 38.2683
92.388 38.2683 0
81.6497 40.8248 40.8248
-38.2683 92.388 0
-40.8248 81.6497 40.8248
-92.388 38.2683 0
-92.388 0 38.2683
-81.6497 40.8248 40.8248
-38.2683 0 92.388
-40.8248 40.8248 81.6497
-92.388 -38.2683 0
-81.6497 -40.8248 40.8248
-38.2683 -92.388 0
0 -92.388 38.2683
-40.8248 -81.6497 40.8248
0 -38.2683 92.388
-40.8248 -40.8248 81.6497
40.8248 -40.8248 81.6497
38.2683 -92.388 0
40.8248 -81.6497 40.8248
92.388 -38.2683 0
81.6497 -40.8248 40.8248
0 38.2683 -92.388
40.8248 40.8248 -81.6497
38.2683 0 -92.388
0 92.388 -38.2683
40.8248 81.6497 -40.8248
92.388 0 -38.2683
81.6497 40.8248 -40.8248
-40.8248 81.6497 -40.8248
-38.2683 0 -92.388
-40.8248 40.8248 -81.6497
-92.388 0 -38.2683
-81.6497 40.8248 -40.8248
0 -38.2683 -92.388
-40.8248 -40.8248 -81.6497
0 -92.388 -38.2683
-40.8248 -81.6497 -40.8248
-81.6497 -40.8248 -40.8248
40.8248 -40.8248 -81.6497
81.6497 -40.8248 -40.8248
40.8248 -81.6497 -40.8248
0 98.0785 19.509
19.8757 95.9683 19.8757
19.509 98.0785 0
0 83.147 55.557
21.1325 78.8675 57.735
20.8847 89.032 40.4615
57.735 78.8675 21.1325
55.557 83.147 0
40.4615 89.032 20.8847
0 55.557 83.147
20.8847 40.4615 89.032
21.1325 57.735 78.8675
0 19.509 98.0785
19.509 0 98.0785
19.8757 19.8757 95.9683
55.557 0 83.147
57.735 21.1325 78.8675
40.4615 20.8847 89.032
83.147 0 55.557
89.032 20.8847 40.4615
78.8675 21.1325 57.735
98.0785 0 19.509
98.0785 19.509 0
95.9683 19.8757 19.8757
83.147 55.557 0
78.8675 57.735 21.1325
89.032 40.4615 20.8847
42.6401 63.9602 63.9602
63.9602 42.6401 63.9602
63.9602 63.9602 42.6401
-19.509 98.0785 0
-19.8757 95.9683 19.8757
-55.557 83.147 0
-57.735 78.8675 21.1325
-40.4615 89.032 20.8847
-21.1325 78.8675 57.735
-20.8847 89.032 40.4615
-83.147 55.557 0
-89.032 40.4615 20.8847
-78.8675 57.735 21.1325
-98.0785 19.509 0
-98.0785 0 19.509
-95.9683 19.8757 19.8757
-83.147 0 55.557
-78.8675 21.1325 57.735
-89.032 20.8847 40.4615
-55.557 0 83.147
-40.4615 20.8847 89.032
-57.735 21.1325 78.8675
-19.509 0 98.0785
-19.8757 19.8757 95.9683
-21.1325 57.735 78.8675
-20.8847 40.4615 89.032
-63.9602 63.9602 42.6401
-63.9602 42.6401 63.9602
-42.6401 63.9602 63.9602
-98.0785 -19.509 0
-95.9683 -19.8757 19.8757
-83.147 -55.557 0
-78.8675 -57.735 21.1325
-89.032 -40.4615 20.8847
-78.8675 -21.1325 57.735
-89.032 -20.8847 40.4615
-55.557 -83.147 0
-40.4615 -89.032 20.8847
-57.735 -78.8675 21.1325
-19.509 -98.0785 0
0 -98.0785 19.509
-19.8757 -95.9683 19.8757
0 -83.147 55.557
-21.1325 -78.8675 57.735
-20.8847 -89.032 40.4615
0 -55.557 83.147
-20.8847 -40.4615 89.032
-21.1325 -57.735 78.8675
0 -19.509 98.0785
-19.8757 -19.8757 95.9683
-57.735 -21.1325 78.8675
-40.4615 -20.8847 89.032
-63.9602 -63.9602 42.6401
-42.6401 -63.9602 63.9602
-63.9602 -42.6401 63.9602
19.8757 -19.8757 95.9683
21.1325 -57.735 78.8675
20.8847 -40.4615 89.032
57.735 -21.1325 78.8675
40.4615 -20.8847 89.032
20.8847 -89.032 40.4615
21.1325 -78.8675 57.735
19.509 -98.0785 0
19.8757 -95.9683 19.8757
55.557 -83.147 0
57.735 -78.8675 21.1325
40.4615 -89.032 20.8847
83.147 -55.557 0
89.032 -40.4615 20.8847
78.8675 -57.735 21.1325
98.0785 -19.509 0
95.9683 -19.8757 19.8757
78.8675 -21.1325 57.735
89.032 -20.8847 40.4615
42.6401 -63.9602 63.9602
63.9602 -63.9602 42.6401
63.9602 -42.6401 63.9602
0 19.509 -98.0785
19.8757 19.8757 -95.9683
19.509 0 -98.0785
0 55.557 -83.147
21.1325 57.735 -78.8675
20.8847 40.4615 -89.032
57.735 21.1325 -78.8675
55.557 0 -83.147
40.4615 20.8847 -89.032
0 83.147 -55.557
20.8847 89.032 -40.4615
21.1325 78.8675 -57.735
0 98.0785 -19.509
19.8757 95.9683 -19.8757
57.735 78.8675 -21.1325
40.4615 89.032 -20.8847
89.032 40.4615 -20.8847
78.8675 57.735 -21.1325
98.0785 0 -19.509
95.9683 19.8757 -19.8757
83.147 0 -55.557
78.8675 21.1325 -57.735
89.032 20.8847 -40.4615
42.6401 63.9602 -63.9602
63.9602 63.9602 -42.6401
63.9602 42.6401 -63.9602
-19.8757 95.9683 -19.8757
-21.1325 78.8675 -57.735
-20.8847 89.032 -40.4615
-57.735 78.8675 -21.1325
-40.4615 89.032 -20.8847
-20.8847 40.4615 -89.032
-21.1325 57.735 -78.8675
-19.509 0 -98.0785
-19.8757 19.8757 -95.9683
-55.557 0 -83.147
-57.735 21.1325 -78.8675
-40.4615 20.8847 -89.032
-83.147 0 -55.557
-89.032 20.8847 -40.4615
-78.8675 21.1325 -57.735
-98.0785 0 -19.509
-95.9683 19.8757 -19.8757
-78.8675 57.735 -21.1325
-89.032 40.4615 -20.8847
-42.6401 63.9602 -63.9602
-63.9602 42.6401 -63.9602
-63.9602 63.9602 -42.6401
0 -19.509 -98.0785
-19.8757 -19.8757 -95.9683
0 -55.557 -83.147
-21.1325 -57.735 -78.8675
-20.8847 -40.4615 -89.032
-57.735 -21.1325 -78.8675
-40.4615 -20.8847 -89.032
0 -83.147 -55.557
-20.8847 -89.032 -40.4615
-21.1325 -78.8675 -57.735
0 -98.0785 -19.509
-19.8757 -95.9683 -19.8757
-57.735 -78.8675 -21.1325
-40.4615 -89.032 -20.8847
-89.032 -40.4615 -20.8847
-78.8675 -57.735 -21.1325
-95.9683 -19.8757 -19.8757
-78.8675 -21.1325 -57.735
-89.032 -20.8847 -40.4615
-42.6401 -63.9602 -63.9602
-63.9602 -63.9602 -42.6401
-63.9602 -42.6401 -63.9602
19.8757 -19.8757 -95.9683
57.735 -21.1325 -78.8675
40.4615 -20.8847 -89.032
21.1325 -57.735 -78.8675
20.8847 -40.4615 -89.032
89.032 -20.8847 -40.4615
78.8675 -21.1325 -57.735
95.9683 -19.8757 -19.8757
78.8675 -57.735 -21.1325
89.032 -40.4615 -20.8847
40.4615 -89.032 -20.8847
57.735 -78.8675 -21.1325
19.8757 -95.9683 -19.8757
21.1325 -78.8675 -57.735
20.8847 -89.032 -40.4615
63.9602 -42.6401 -63.9602
63.9602 -63.9602 -42.6401
42.6401 -63.9602 -63.9602
POLYGONS 512 2048
3 2 66 68
3 66 18 67
3 67 20 68
3 66 67 68
3 18 69 71
3 69 6 70
3 70 19 71
3 69 70 71
3 19 72 74
3 72 8 73
3 73 20 74
3 72 73 74
3 18 71 67
3 71 19 74
3 74 20 67
3 71 74 67
3 6 75 77
3 75 21 76
3 76 23 77
3 75 76 77
3 21 78 80
3 78 4 79
3 79 22 80
3 78 79 80
3 22 81 83
3 81 7 82
3 82 23 83
3 81 82 83
3 21 80 76
3 80 22 83
3 83 23 76
3 80 83 76
3 7 84 86
3 84 24 85
3 85 26 86
3 84 85 86
3 24 87 89
3 87 0 88
3 88 25 89
3 87 88 89
3 25 90 92
3 90 8 91
3 91 26 92
3 90 91 92
3 24 89 85
3 89 25 92
3 92 26 85
3 89 92 85
3 6 77 70
3 77 23 93
3 93 19 70
3 77 93 70
3 23 82 94
3 82 7 86
3 86 26 94
3 82 86 94
3 26 91 95
3 91 8 72
3 72 19 95
3 91 72 95
3 23 94 93
3 94 26 95
3 95 19 93
3 94 95 93
3 2 96 66
3 96 27 97
3 97 18 66
3 96 97 66
3 27 98 100
3 98 9 99
3 99 28 100
3 98 99 100
3 28 101 102
3 101 6 69
3 69 18 102
3 101 69 102
3 27 100 97
3 100 28 102
3 102 18 97
3 100 102 97
3 9 103 105
3 103 29 104
3 104 31 105
3 103 104 105
3 29 106 108
3 106 1 107
3 107 30 108
3 106 107 108
3 30 109 111
3 109 10 110
3 110 31 111
3 109 110 111
3 29 108 104
3 108 30 111
3 111 31 104
3 108 111 104
3 10 112 114
3 112 32 113
3 113 33 114
3 112 113 114
3 32 115 116
3 115 4 78
3 78 21 116
3 115 78 116
3 21 75 118
3 75 6 117
3 117 33 118
3 75 117 118
3 32 116 113
3 116 21 118
3 118 33 113
3 116 118 113
3 9 105 99
3 105 31 119
3 119 28 99
3 105 119 99
3 31 110 120
3 110 10 114
3 114 33 120
3 110 114 120
3 33 117 121
3 117 6 101
3 101 28 121
3 117 101 121
3 31 120 119
3 120 33 121
3 121 28 119
3 120 121 119
3 1 122 107
3 122 34 123
3 123 30 107
3 122 123 107
3 34 124 126
3 124 11 125
3 125 35 126
3 124 125 126
3 35 127 128
3 127 10 109
3 109 30 128
3 127 109 128
3 34 126 123
3 126 35 128
3 128 30 123
3 126 128 123
3 11 129 131
3 129 36 130
3 130 38 131
3 129 130 131
3 36 132 134
3 132 3 133
3 133 37 134
3 132 133 134
3 37 135 137
3 135 12 136
3 136 38 137
3 135 136 137
3 36 134 130
3 134 37 137
3 137 38 130
3 134 137 130
3 12 138 140
3 138 39 139
3 139 40 140
3 138 139 140
3 39 141 142
3 141 4 115
3 115 32 142
3 141 115 142
3 32 112 144
3 112 10 143
3 143 40 144
3 112 143 144
3 39 142 139
3 142 32 144
3 144 40 139
3 142 144 139
3 11 131 125
3 131 38 145
3 145 35 125
3 131 145 125
3 38 136 146
3 136 12 140
3 140 40 146
3 136 140 146
3 40 143 147
3 143 10 127
3 127 35 147
3 143 127 147
3 38 146 145
3 146 40 147
3 147 35 145
3 146 147 145
3 4 141 79
3 141 39 148
3 148 22 79
3 141 148 79
3 39 138 150
3 138 12 149
3 149 41 150
3 138 149 150
3 41 151 152
3 151 7 81
3 81 22 152
3 151 81 152
3 39 150 148
3 150 41 152
3 152 22 148
3 150 152 148
3 12 135 154
3 135 37 153
3 153 43 154
3 135 153 154
3 37 133 156
3 133 3 155
3 155 42 156
3 133 155 156
3 42 157 159
3 157 13 158
3 158 43 159
3 157 158 159
3 37 156 153
3 156 42 159
3 159 43 153
3 156 159 153
3 13 160 162
3 160 44 161
3 161 45 162
3 160 161 162
3 44 163 164
3 163 0 87
3 87 24 164
3 163 87 164
3 24 84 166
3 84 7 165
3 165 45 166
3 84 165 166
3 44 164 161
3 164 24 166
3 166 45 161
3 164 166 161
3 12 154 149
3 154 43 167
3 167 41 149
3 154 167 149
3 43 158 168
3 158 13 162
3 162 45 168
3 158 162 168
3 45 165 169
3 165 7 151
3 151 41 169
3 165 151 169
3 43 168 167
3 168 45 169
3 169 41 167
3 168 169 167
3 5 170 172
3 170 46 171
3 171 48 172
3 170 171 172
3 46 173 175
3 173 14 174
3 174 47 175
3 173 174 175
3 47 176 178
3 176 15 177
3 177 48 178
3 176 177 178
3 46 175 171
3 175 47 178
3 178 48 171
3 175 178 171
3 14 179 181
3 179 49 180
3 180 50 181
3 179 180 181
3 49 182 183
3 182 2 68
3 68 20 183
3 182 68 183
3 20 73 185
3 73 8 184
3 184 50 185
3 73 184 185
3 49 183 180
3 183 20 185
3 185 50 180
3 183 185 180
3 8 90 187
3 90 25 186
3 186 52 187
3 90 186 187
3 25 88 189
3 88 0 188
3 188 51 189
3 88 188 189
3 51 190 192
3 190 15 191
3 191 52 192
3 190 191 192
3 25 189 186
3 189 51 192
3 192 52 186
3 189 192 186
3 14 181 174
3 181 50 193
3 193 47 174
3 181 193 174
3 50 184 194
3 184 8 187
3 187 52 194
3 184 187 194
3 52 191 195
3 191 15 176
3 176 47 195
3 191 176 195
3 50 194 193
3 194 52 195
3 195 47 193
3 194 195 193
3 2 182 96
3 182 49 196
3 196 27 96
3 182 196 96
3 49 179 198
3 179 14 197
3 197 53 198
3 179 197 198
3 53 199 200
3 199 9 98
3 98 27 200
3 199 98 200
3 49 198 196
3 198 53 200
3 200 27 196
3 198 200 196
3 14 173 202
3 173 46 201
3 201 55 202
3 173 201 202
3 46 170 204
3 170 5 203
3 203 54 204
3 170 203 204
3 54 205 207
3 205 16 206
3 206 55 207
3 205 206 207
3 46 204 201
3 204 54 207
3 207 55 201
3 204 207 201
3 16 208 210
3 208 56 209
3 209 57 210
3 208 209 210
3 56 211 212
3 211 1 106
3 106 29 212
3 211 106 212
3 29 103 214
3 103 9 213
3 213 57 214
3 103 213 214
3 56 212 209
3 212 29 214
3 214 57 209
3 212 214 209
3 14 202 197
3 202 55 215
3 215 53 197
3 202 215 197
3 55 206 216
3 206 16 210
3 210 57 216
3 206 210 216
3 57 213 217
3 213 9 199
3 199 53 217
3 213 199 217
3 55 216 215
3 216 57 217
3 217 53 215
3 216 217 215
3 5 218 203
3 218 58 219
3 219 54 203
3 218 219 203
3 58 220 222
3 220 17 221
3 221 59 222
3 220 221 222
3 59 223 224
3 223 16 205
3 205 54 224
3 223 205 224
3 58 222 219
3 222 59 224
3 224 54 219
3 222 224 219
3 17 225 227
3 225 60 226
3 226 61 227
3 225 226 227
3 60 228 229
3 228 3 132
3 132 36 229
3 228 132 229
3 36 129 231
3 129 11 230
3 230 61 231
3 129 230 231
3 60 229 226
3 229 36 231
3 231 61 226
3 229 231 226
3 11 124 233
3 124 34 232
3 232 62 233
3 124 232 233
3 34 122 234
3 122 1 211
3 211 56 234
3 122 211 234
3 56 208 236
3 208 16 235
3 235 62 236
3 208 235 236
3 34 234 232
3 234 56 236
3 236 62 232
3 234 236 232
3 17 227 221
3 227 61 237
3 237 59 221
3 227 237 221
3 61 230 238
3 230 11 233
3 233 62 238
3 230 233 238
3 62 235 239
3 235 16 223
3 223 59 239
3 235 223 239
3 61 238 237
3 238 62 239
3 239 59 237
3 238 239 237
3 5 172 218
3 172 48 240
3 240 58 218
3 172 240 218
3 48 177 242
3 177 15 241
3 241 63 242
3 177 241 242
3 63 243 244
3 243 17 220
3 220 58 244
3 243 220 244
3 48 242 240
3 242 63 244
3 244 58 240
3 242 244 240
3 15 190 246
3 190 51 245
3 245 64 246
3 190 245 246
3 51 188 247
3 188 0 163
3 163 44 247
3 188 163 247
3 44 160 249
3 160 13 248
3 248 64 249
3 160 248 249
3 51 247 245
3 247 44 249
3 249 64 245
3 247 249 245
3 13 157 251
3 157 42 250
3 250 65 251
3 157 250 251
3 42 155 252
3 155 3 228
3 228 60 252
3 155 228 252
3 60 225 254
3 225 17 253
3 253 65 254
3 225 253 254
3 42 252 250
3 252 60 254
3 254 65 250
3 252 254 250
3 15 246 241
3 246 64 255
3 255 63 241
3 246 255 241
3 64 248 256
3 248 13 251
3 251 65 256
3 248 251 256
3 65 253 257
3 253 17 243
3 243 63 257
3 253 243 257
3 64 256 255
3 256 65 257
3 257 63 255
3 256 257 255
POINT_DATA 258
SCALARS double double
LOOKUP_TABLE default
0 0 0 
0 0 0 
0 0 0 
0 0 0 
0 0 0 
0 0 0 
0 0 0 
0 0 0 
0 0 0 
0 0 0 
0 0 0 
0 0 0 
0 0 0 
0 0 0 
0 0 0 
0 0 0 
0 0 0 
0 0 0 
0 0 0 
0 0 0 
0 0 0 
0 0 0 
0 0 0 
0 0 0 
0 0 0 
0 0 0 
0 0 0 
0 0 0 
0 0 0 
10 0 0 
0 0 0 
0 0 0 
0 0 0 
0 0 0 
0 0 0 
0 0 0 
0 0 0 
0 0 0 
0 0 0 
0 0 0 
0 0 0 
0 0 0 
0 0 0 
0 0 0 
0 0 0 
0 0 0 
0 0 0 
0 0 0 
0 0 0 
0 0 0 
0 0 0 
0 0 0 
0 0 0 
0 0 0 
0 0 0 
0 0 0 
0 0 0 
0 0 0 
0 0 0 
0 0 0 
0 0 0 
0 0 0 
0 0 0 
0 0 0 
0 0 0 
0 0 0 
0 0 0 
0 0 0 
0 0 0 
0 0 0 
0 0 0 
0 0 0 
0 0 0 
0 0 0 
0 0 0 
0 0 0 
0 0 0 
0 0 0 
0 0 0 
0 0 0 
0 0 0 
0 0 0 
0 0 0 
0 0 0 
0 0 0 
0 0 0 
