# vtk DataFile Version 2.0
File written by itkVTKPolyDataWriter
ASCII
DATASET POLYDATA
POINTS 66 float
100 0 0
-100 0 0
0 100 0
0 -100 0
0 0 100
0 0 -100
0 70.7107 70.7107
70.7107 0 70.7107
70.7107 70.7107 0
-70.7107 70.7107 0
-70.7107 0 70.7107
-70.7107 -70.7107 0
0 -70.7107 70.7107
70.7107 -70.7107 0
0 70.7107 -70.7107
70.7107 0 -70.7107
-70.7107 0 -70.7107
0 -70.7107 -70.7107
0 92.388 38.2683
40.8248 81.6497 40.8248
38.2683 92.388 0
0 38.2683 92.388
38.2683 0 92.388
40.8248 40.8248 81.6497
92.388 0 38.2683
92.388 38.2683 0
81.6497 40.8248 40.8248
-38.2683 92.388 0
-40.8248 81.6497 40.8248
-92.388 38.2683 0
-92.388 0 38.2683
-81.6497 40.8248 40.8248
-38.2683 0 92.388
-40.8248 40.8248 81.6497
-92.388 -38.2683 0
-81.6497 -40.8248 40.8248
-38.2683 -92.388 0
0 -92.388 38.2683
-40.8248 -81.6497 40.8248
0 -38.2683 92.388
-40.8248 -40.8248 81.6497
40.8248 -40.8248 81.6497
38.2683 -92.388 0
40.8248 -81.6497 40.8248
92.388 -38.2683 0
81.6497 -40.8248 40.8248
0 38.2683 -92.388
40.8248 40.8248 -81.6497
38.2683 0 -92.388
0 92.388 -38.2683
40.8248 81.6497 -40.8248
92.388 0 -38.2683
81.6497 40.8248 -40.8248
-40.8248 81.6497 -40.8248
-38.2683 0 -92.388
-40.8248 40.8248 -81.6497
-92.388 0 -38.2683
-81.6497 40.8248 -40.8248
0 -38.2683 -92.388
-40.8248 -40.8248 -81.6497
0 -92.388 -38.2683
-40.8248 -81.6497 -40.8248
-81.6497 -40.8248 -40.8248
40.8248 -40.8248 -81.6497
81.6497 -40.8248 -40.8248
40.8248 -81.6497 -40.8248
POLYGONS 128 512
3 2 18 20
3 18 6 19
3 19 8 20
3 18 19 20
3 6 21 23
3 21 4 22
3 22 7 23
3 21 22 23
3 7 24 26
3 24 0 25
3 25 8 26
3 24 25 26
3 6 23 19
3 23 7 26
3 26 8 19
3 23 26 19
3 2 27 18
3 27 9 28
3 28 6 18
3 27 28 18
3 9 29 31
3 29 1 30
3 30 10 31
3 29 30 31
3 10 32 33
3 32 4 21
3 21 6 33
3 32 21 33
3 9 31 28
3 31 10 33
3 33 6 28
3 31 33 28
3 1 34 30
3 34 11 35
3 35 10 30
3 34 35 30
3 11 36 38
3 36 3 37
3 37 12 38
3 36 37 38
3 12 39 40
3 39 4 32
3 32 10 40
3 39 32 40
3 11 38 35
3 38 12 40
3 40 10 35
3 38 40 35
3 4 39 22
3 39 12 41
3 41 7 22
3 39 41 22
3 12 37 43
3 37 3 42
3 42 13 43
3 37 42 43
3 13 44 45
3 44 0 24
3 24 7 45
3 44 24 45
3 12 43 41
3 43 13 45
3 45 7 41
3 43 45 41
3 5 46 48
3 46 14 47
3 47 15 48
3 46 47 48
3 14 49 50
3 49 2 20
3 20 8 50
3 49 20 50
3 8 25 52
3 25 0 51
3 51 15 52
3 25 51 52
3 14 50 47
3 50 8 52
3 52 15 47
3 50 52 47
3 2 49 27
3 49 14 53
3 53 9 27
3 49 53 27
3 14 46 55
3 46 5 54
3 54 16 55
3 46 54 55
3 16 56 57
3 56 1 29
3 29 9 57
3 56 29 57
3 14 55 53
3 55 16 57
3 57 9 53
3 55 57 53
3 5 58 54
3 58 17 59
3 59 16 54
3 58 59 54
3 17 60 61
3 60 3 36
3 36 11 61
3 60 36 61
3 11 34 62
3 34 1 56
3 56 16 62
3 34 56 62
3 17 61 59
3 61 11 62
3 62 16 59
3 61 62 59
3 5 48 58
3 48 15 63
3 63 17 58
3 48 63 58
3 15 51 64
3 51 0 44
3 44 13 64
3 51 44 64
3 13 42 65
3 42 3 60
3 60 17 65
3 42 60 65
3 15 64 63
3 64 13 65
3 65 17 63
3 64 65 63
POINT_DATA 66
SCALARS double double
LOOKUP_TABLE default
0 
0 0 0 
0 0 0 
0 0 0 
0 0 0 
0 0 0 
0 0 0 
0 0 0 
0 0 10 
0 0 0 
0 0 0 
0 0 0 
0 0 0 
0 0 0 
0 0 0 
0 0 0 
0 0 0 
0 0 0 
0 0 0 
0 0 0 
0 0 0 
0 0 0 
0 0
